 DBCSR| CPU Multiplication driver                                           XSMM (U)
 DBCSR| Multrec recursion limit                                              512 (U)
 DBCSR| Multiplication stack size                                           1000 (D)
 DBCSR| Maximum elements for images                                    UNLIMITED (U)
 DBCSR| Multiplicative factor virtual images                                   1 (U)
 DBCSR| Use multiplication densification                                       T (D)
 DBCSR| Multiplication size stacks                                             3 (U)
 DBCSR| Use memory pool for CPU allocation                                     F (U)
 DBCSR| Number of 3D layers                                               SINGLE (U)
 DBCSR| Use MPI memory allocation                                              F (U)
 DBCSR| Use RMA algorithm                                                      F (U)
 DBCSR| Use Communication thread                                               T (U)
 DBCSR| Communication thread load                                             60 (D)
 DBCSR| MPI: My process id                                                     0
 DBCSR| MPI: Number of processes                                             256
 DBCSR| OMP: Current number of threads                                         8
 DBCSR| OMP: Max number of threads                                             8
 DBCSR| Split modifier for TAS multiplication algorithm                  1.0E+00 (U)


  **** **** ******  **  PROGRAM STARTED AT               2025-01-04 07:08:25.160
 ***** ** ***  *** **   PROGRAM STARTED ON                             n2lcn0110
 **    ****   ******    PROGRAM STARTED BY                              eprop2d1
 ***** **    ** ** **   PROGRAM PROCESS ID                               3377775
  **** **  *******  **  PROGRAM STARTED IN /scratch/hpc-prf-metdyn/eprop2d1_Jan/
                                           39_CN_Zahra_Thomas/07_aug-SVP_RI_C_31
                                           _N_27_12x12x24_kmesh_more_reasonable_
                                           SCF_params

 CP2K| version string:                 CP2K version 2024.1 (Development Version)
 CP2K| source code revision number:                                  git:182b4bb
 CP2K| cp2kflags: omp libint fftw3 libxc libgrpp elpa parallel mpi_f08 scalapack
 CP2K|             cosma xsmm plumed2 spglib sirius libvori libbqb libvdwxc hdf5
 CP2K| is freely available from                            https://www.cp2k.org/
 CP2K| Program compiled at                         Thu Jul 11 20:15:33 CEST 2024
 CP2K| Program compiled on                                              n2login1
 CP2K| Program compiled for                                                local
 CP2K| Data directory path    /opt/software/pc2/EB-SW/software/CP2K/2024.1-foss-
 CP2K| Input file name                                                    GW.inp

 GLOBAL| Force Environment number                                              1
 GLOBAL| Basis set file name            /scratch/hpc-prf-metdyn/eprop2d1_Jan/39_
 GLOBAL| Potential file name                                      GTH_POTENTIALS
 GLOBAL| MM Potential file name                                     MM_POTENTIAL
 GLOBAL| Coordinate file name                                      __STD_INPUT__
 GLOBAL| Method name                                                        CP2K
 GLOBAL| Project name                                                      GW-2D
 GLOBAL| Run type                                                         ENERGY
 GLOBAL| FFT library                                                       FFTW3
 GLOBAL| Diagonalization library                                            ELPA
 GLOBAL| DGEMM library                                                      BLAS
 GLOBAL| Minimum number of eigenvectors for ELPA usage                        16
 GLOBAL| Orthonormality check for eigenvectors                          DISABLED
 GLOBAL| Matrix multiplication library                                     COSMA
 GLOBAL| All-to-all communication in single precision                          F
 GLOBAL| FFTs using library dependent lengths                                  F
 GLOBAL| Grid backend                                                       AUTO
 GLOBAL| Global print level                                               MEDIUM
 GLOBAL| MPI I/O enabled                                                       T
 GLOBAL| Total number of message passing processes                           256
 GLOBAL| Number of threads for this process                                    8
 GLOBAL| This output is from process                                           0
 GLOBAL| Stack size for threads created by OpenMP (OMP_STACKSIZE)        default
 GLOBAL| CPU model name                          AMD EPYC 7763 64-Core Processor
 GLOBAL| CPUID                                                              1002
 GLOBAL| Compiled for CPUID                                                    0

 *** HINT in environment.F:922 :: The compiler target flags (generic) used ***
 *** to build this binary cannot exploit all extensions of this CPU model  ***
 *** (x86_avx2). Consider compiler target flags as part of FCFLAGS and     ***
 *** CFLAGS (ARCH file).                                                   ***


 MEMORY| system memory details [Kb]
 MEMORY|                        rank 0           min           max       average
 MEMORY| MemTotal           1056622244    1056622244    1056622248    1056622246
 MEMORY| MemFree            1044816880    1041893668    1044816880    1042929479
 MEMORY| Buffers                203764         62908        303124        222927
 MEMORY| Cached                3952016       3952016       6399168       5631066
 MEMORY| Slab                  1572580       1454912       2621144       1719456
 MEMORY| SReclaimable           311252        244816       1146464        397517
 MEMORY| MemLikelyFree      1049283912    1049066336    1049283912    1049180991


 *** Fundamental physical constants (SI units) ***

 *** Literature: B. J. Mohr and B. N. Taylor,
 ***             CODATA recommended values of the fundamental physical
 ***             constants: 2006, Web Version 5.1
 ***             http://physics.nist.gov/constants

 Speed of light in vacuum [m/s]                             2.99792458000000E+08
 Magnetic constant or permeability of vacuum [N/A**2]       1.25663706143592E-06
 Electric constant or permittivity of vacuum [F/m]          8.85418781762039E-12
 Planck constant (h) [J*s]                                  6.62606896000000E-34
 Planck constant (h-bar) [J*s]                              1.05457162825177E-34
 Elementary charge [C]                                      1.60217648700000E-19
 Electron mass [kg]                                         9.10938215000000E-31
 Electron g factor [ ]                                     -2.00231930436220E+00
 Proton mass [kg]                                           1.67262163700000E-27
 Fine-structure constant                                    7.29735253760000E-03
 Rydberg constant [1/m]                                     1.09737315685270E+07
 Avogadro constant [1/mol]                                  6.02214179000000E+23
 Boltzmann constant [J/K]                                   1.38065040000000E-23
 Atomic mass unit [kg]                                      1.66053878200000E-27
 Bohr radius [m]                                            5.29177208590000E-11

 *** Conversion factors ***

 [u] -> [a.u.]                                              1.82288848426455E+03
 [Angstrom] -> [Bohr] = [a.u.]                              1.88972613288564E+00
 [a.u.] = [Bohr] -> [Angstrom]                              5.29177208590000E-01
 [a.u.] -> [s]                                              2.41888432650478E-17
 [a.u.] -> [fs]                                             2.41888432650478E-02
 [a.u.] -> [J]                                              4.35974393937059E-18
 [a.u.] -> [N]                                              8.23872205491840E-08
 [a.u.] -> [K]                                              3.15774647902944E+05
 [a.u.] -> [kJ/mol]                                         2.62549961709828E+03
 [a.u.] -> [kcal/mol]                                       6.27509468713739E+02
 [a.u.] -> [Pa]                                             2.94210107994716E+13
 [a.u.] -> [bar]                                            2.94210107994716E+08
 [a.u.] -> [atm]                                            2.90362800883016E+08
 [a.u.] -> [eV]                                             2.72113838565563E+01
 [a.u.] -> [Hz]                                             6.57968392072181E+15
 [a.u.] -> [1/cm] (wave numbers)                            2.19474631370540E+05
 [a.u./Bohr**2] -> [1/cm]                                   5.14048714338585E+03
 

 CELL_TOP| Volume [angstrom^3]:                                       161.137123
 CELL_TOP| Vector a [angstrom     7.134     0.000     0.000   |a| =     7.133900
 CELL_TOP| Vector b [angstrom    -3.567     6.178     0.000   |b| =     7.133900
 CELL_TOP| Vector c [angstrom     0.000     0.000     3.656   |c| =     3.656040
 CELL_TOP| Angle (b,c), alpha [degree]:                                90.000000
 CELL_TOP| Angle (a,c), beta  [degree]:                                90.000000
 CELL_TOP| Angle (a,b), gamma [degree]:                               120.000000
 CELL_TOP| Numerically orthorhombic:                                          NO
 CELL_TOP| Periodicity                                                       XYZ

 GENERATE|  Preliminary Number of Bonds generated:                             0
 GENERATE|  Achieved consistency in connectivity generation.

 CELL| Volume [angstrom^3]:                                           161.137123
 CELL| Vector a [angstrom]:       7.134     0.000     0.000   |a| =     7.133900
 CELL| Vector b [angstrom]:      -3.567     6.178     0.000   |b| =     7.133900
 CELL| Vector c [angstrom]:       0.000     0.000     3.656   |c| =     3.656040
 CELL| Angle (b,c), alpha [degree]:                                    90.000000
 CELL| Angle (a,c), beta  [degree]:                                    90.000000
 CELL| Angle (a,b), gamma [degree]:                                   120.000000
 CELL| Numerically orthorhombic:                                              NO
 CELL| Periodicity                                                           XYZ

 CELL_REF| Volume [angstrom^3]:                                       161.137123
 CELL_REF| Vector a [angstrom     7.134     0.000     0.000   |a| =     7.133900
 CELL_REF| Vector b [angstrom    -3.567     6.178     0.000   |b| =     7.133900
 CELL_REF| Vector c [angstrom     0.000     0.000     3.656   |c| =     3.656040
 CELL_REF| Angle (b,c), alpha [degree]:                                90.000000
 CELL_REF| Angle (a,c), beta  [degree]:                                90.000000
 CELL_REF| Angle (a,b), gamma [degree]:                               120.000000
 CELL_REF| Numerically orthorhombic:                                          NO
 CELL_REF| Periodicity                                                       XYZ

 *******************************************************************************
                                    Kpoints
 *******************************************************************************
 BRILLOUIN| K-point scheme                                        Monkhorst-Pack
 BRILLOUIN| K-Point grid                                            12   12   24
 BRILLOUIN| Accuracy in Symmetry determination                      0.100000E-05
 BRILLOUIN| K-Point point group symmetrization                               OFF
 BRILLOUIN| Wavefunction type                                            COMPLEX
 BRILLOUIN| List of Kpoints [2 Pi/Bohr]                                     1728
 BRILLOUIN| Number           Weight            X              Y              Z
 BRILLOUIN|     1           0.00058       -0.45833       -0.45833       -0.47917
 BRILLOUIN|     2           0.00058       -0.45833       -0.45833       -0.43750
 BRILLOUIN|     3           0.00058       -0.45833       -0.45833       -0.39583
 BRILLOUIN|     4           0.00058       -0.45833       -0.45833       -0.35417
 BRILLOUIN|     5           0.00058       -0.45833       -0.45833       -0.31250
 BRILLOUIN|     6           0.00058       -0.45833       -0.45833       -0.27083
 BRILLOUIN|     7           0.00058       -0.45833       -0.45833       -0.22917
 BRILLOUIN|     8           0.00058       -0.45833       -0.45833       -0.18750
 BRILLOUIN|     9           0.00058       -0.45833       -0.45833       -0.14583
 BRILLOUIN|    10           0.00058       -0.45833       -0.45833       -0.10417
 BRILLOUIN|    11           0.00058       -0.45833       -0.45833       -0.06250
 BRILLOUIN|    12           0.00058       -0.45833       -0.45833       -0.02083
 BRILLOUIN|    13           0.00058       -0.45833       -0.45833        0.02083
 BRILLOUIN|    14           0.00058       -0.45833       -0.45833        0.06250
 BRILLOUIN|    15           0.00058       -0.45833       -0.45833        0.10417
 BRILLOUIN|    16           0.00058       -0.45833       -0.45833        0.14583
 BRILLOUIN|    17           0.00058       -0.45833       -0.45833        0.18750
 BRILLOUIN|    18           0.00058       -0.45833       -0.45833        0.22917
 BRILLOUIN|    19           0.00058       -0.45833       -0.45833        0.27083
 BRILLOUIN|    20           0.00058       -0.45833       -0.45833        0.31250
 BRILLOUIN|    21           0.00058       -0.45833       -0.45833        0.35417
 BRILLOUIN|    22           0.00058       -0.45833       -0.45833        0.39583
 BRILLOUIN|    23           0.00058       -0.45833       -0.45833        0.43750
 BRILLOUIN|    24           0.00058       -0.45833       -0.45833        0.47917
 BRILLOUIN|    25           0.00058       -0.45833       -0.37500       -0.47917
 BRILLOUIN|    26           0.00058       -0.45833       -0.37500       -0.43750
 BRILLOUIN|    27           0.00058       -0.45833       -0.37500       -0.39583
 BRILLOUIN|    28           0.00058       -0.45833       -0.37500       -0.35417
 BRILLOUIN|    29           0.00058       -0.45833       -0.37500       -0.31250
 BRILLOUIN|    30           0.00058       -0.45833       -0.37500       -0.27083
 BRILLOUIN|    31           0.00058       -0.45833       -0.37500       -0.22917
 BRILLOUIN|    32           0.00058       -0.45833       -0.37500       -0.18750
 BRILLOUIN|    33           0.00058       -0.45833       -0.37500       -0.14583
 BRILLOUIN|    34           0.00058       -0.45833       -0.37500       -0.10417
 BRILLOUIN|    35           0.00058       -0.45833       -0.37500       -0.06250
 BRILLOUIN|    36           0.00058       -0.45833       -0.37500       -0.02083
 BRILLOUIN|    37           0.00058       -0.45833       -0.37500        0.02083
 BRILLOUIN|    38           0.00058       -0.45833       -0.37500        0.06250
 BRILLOUIN|    39           0.00058       -0.45833       -0.37500        0.10417
 BRILLOUIN|    40           0.00058       -0.45833       -0.37500        0.14583
 BRILLOUIN|    41           0.00058       -0.45833       -0.37500        0.18750
 BRILLOUIN|    42           0.00058       -0.45833       -0.37500        0.22917
 BRILLOUIN|    43           0.00058       -0.45833       -0.37500        0.27083
 BRILLOUIN|    44           0.00058       -0.45833       -0.37500        0.31250
 BRILLOUIN|    45           0.00058       -0.45833       -0.37500        0.35417
 BRILLOUIN|    46           0.00058       -0.45833       -0.37500        0.39583
 BRILLOUIN|    47           0.00058       -0.45833       -0.37500        0.43750
 BRILLOUIN|    48           0.00058       -0.45833       -0.37500        0.47917
 BRILLOUIN|    49           0.00058       -0.45833       -0.29167       -0.47917
 BRILLOUIN|    50           0.00058       -0.45833       -0.29167       -0.43750
 BRILLOUIN|    51           0.00058       -0.45833       -0.29167       -0.39583
 BRILLOUIN|    52           0.00058       -0.45833       -0.29167       -0.35417
 BRILLOUIN|    53           0.00058       -0.45833       -0.29167       -0.31250
 BRILLOUIN|    54           0.00058       -0.45833       -0.29167       -0.27083
 BRILLOUIN|    55           0.00058       -0.45833       -0.29167       -0.22917
 BRILLOUIN|    56           0.00058       -0.45833       -0.29167       -0.18750
 BRILLOUIN|    57           0.00058       -0.45833       -0.29167       -0.14583
 BRILLOUIN|    58           0.00058       -0.45833       -0.29167       -0.10417
 BRILLOUIN|    59           0.00058       -0.45833       -0.29167       -0.06250
 BRILLOUIN|    60           0.00058       -0.45833       -0.29167       -0.02083
 BRILLOUIN|    61           0.00058       -0.45833       -0.29167        0.02083
 BRILLOUIN|    62           0.00058       -0.45833       -0.29167        0.06250
 BRILLOUIN|    63           0.00058       -0.45833       -0.29167        0.10417
 BRILLOUIN|    64           0.00058       -0.45833       -0.29167        0.14583
 BRILLOUIN|    65           0.00058       -0.45833       -0.29167        0.18750
 BRILLOUIN|    66           0.00058       -0.45833       -0.29167        0.22917
 BRILLOUIN|    67           0.00058       -0.45833       -0.29167        0.27083
 BRILLOUIN|    68           0.00058       -0.45833       -0.29167        0.31250
 BRILLOUIN|    69           0.00058       -0.45833       -0.29167        0.35417
 BRILLOUIN|    70           0.00058       -0.45833       -0.29167        0.39583
 BRILLOUIN|    71           0.00058       -0.45833       -0.29167        0.43750
 BRILLOUIN|    72           0.00058       -0.45833       -0.29167        0.47917
 BRILLOUIN|    73           0.00058       -0.45833       -0.20833       -0.47917
 BRILLOUIN|    74           0.00058       -0.45833       -0.20833       -0.43750
 BRILLOUIN|    75           0.00058       -0.45833       -0.20833       -0.39583
 BRILLOUIN|    76           0.00058       -0.45833       -0.20833       -0.35417
 BRILLOUIN|    77           0.00058       -0.45833       -0.20833       -0.31250
 BRILLOUIN|    78           0.00058       -0.45833       -0.20833       -0.27083
 BRILLOUIN|    79           0.00058       -0.45833       -0.20833       -0.22917
 BRILLOUIN|    80           0.00058       -0.45833       -0.20833       -0.18750
 BRILLOUIN|    81           0.00058       -0.45833       -0.20833       -0.14583
 BRILLOUIN|    82           0.00058       -0.45833       -0.20833       -0.10417
 BRILLOUIN|    83           0.00058       -0.45833       -0.20833       -0.06250
 BRILLOUIN|    84           0.00058       -0.45833       -0.20833       -0.02083
 BRILLOUIN|    85           0.00058       -0.45833       -0.20833        0.02083
 BRILLOUIN|    86           0.00058       -0.45833       -0.20833        0.06250
 BRILLOUIN|    87           0.00058       -0.45833       -0.20833        0.10417
 BRILLOUIN|    88           0.00058       -0.45833       -0.20833        0.14583
 BRILLOUIN|    89           0.00058       -0.45833       -0.20833        0.18750
 BRILLOUIN|    90           0.00058       -0.45833       -0.20833        0.22917
 BRILLOUIN|    91           0.00058       -0.45833       -0.20833        0.27083
 BRILLOUIN|    92           0.00058       -0.45833       -0.20833        0.31250
 BRILLOUIN|    93           0.00058       -0.45833       -0.20833        0.35417
 BRILLOUIN|    94           0.00058       -0.45833       -0.20833        0.39583
 BRILLOUIN|    95           0.00058       -0.45833       -0.20833        0.43750
 BRILLOUIN|    96           0.00058       -0.45833       -0.20833        0.47917
 BRILLOUIN|    97           0.00058       -0.45833       -0.12500       -0.47917
 BRILLOUIN|    98           0.00058       -0.45833       -0.12500       -0.43750
 BRILLOUIN|    99           0.00058       -0.45833       -0.12500       -0.39583
 BRILLOUIN|   100           0.00058       -0.45833       -0.12500       -0.35417
 BRILLOUIN|   101           0.00058       -0.45833       -0.12500       -0.31250
 BRILLOUIN|   102           0.00058       -0.45833       -0.12500       -0.27083
 BRILLOUIN|   103           0.00058       -0.45833       -0.12500       -0.22917
 BRILLOUIN|   104           0.00058       -0.45833       -0.12500       -0.18750
 BRILLOUIN|   105           0.00058       -0.45833       -0.12500       -0.14583
 BRILLOUIN|   106           0.00058       -0.45833       -0.12500       -0.10417
 BRILLOUIN|   107           0.00058       -0.45833       -0.12500       -0.06250
 BRILLOUIN|   108           0.00058       -0.45833       -0.12500       -0.02083
 BRILLOUIN|   109           0.00058       -0.45833       -0.12500        0.02083
 BRILLOUIN|   110           0.00058       -0.45833       -0.12500        0.06250
 BRILLOUIN|   111           0.00058       -0.45833       -0.12500        0.10417
 BRILLOUIN|   112           0.00058       -0.45833       -0.12500        0.14583
 BRILLOUIN|   113           0.00058       -0.45833       -0.12500        0.18750
 BRILLOUIN|   114           0.00058       -0.45833       -0.12500        0.22917
 BRILLOUIN|   115           0.00058       -0.45833       -0.12500        0.27083
 BRILLOUIN|   116           0.00058       -0.45833       -0.12500        0.31250
 BRILLOUIN|   117           0.00058       -0.45833       -0.12500        0.35417
 BRILLOUIN|   118           0.00058       -0.45833       -0.12500        0.39583
 BRILLOUIN|   119           0.00058       -0.45833       -0.12500        0.43750
 BRILLOUIN|   120           0.00058       -0.45833       -0.12500        0.47917
 BRILLOUIN|   121           0.00058       -0.45833       -0.04167       -0.47917
 BRILLOUIN|   122           0.00058       -0.45833       -0.04167       -0.43750
 BRILLOUIN|   123           0.00058       -0.45833       -0.04167       -0.39583
 BRILLOUIN|   124           0.00058       -0.45833       -0.04167       -0.35417
 BRILLOUIN|   125           0.00058       -0.45833       -0.04167       -0.31250
 BRILLOUIN|   126           0.00058       -0.45833       -0.04167       -0.27083
 BRILLOUIN|   127           0.00058       -0.45833       -0.04167       -0.22917
 BRILLOUIN|   128           0.00058       -0.45833       -0.04167       -0.18750
 BRILLOUIN|   129           0.00058       -0.45833       -0.04167       -0.14583
 BRILLOUIN|   130           0.00058       -0.45833       -0.04167       -0.10417
 BRILLOUIN|   131           0.00058       -0.45833       -0.04167       -0.06250
 BRILLOUIN|   132           0.00058       -0.45833       -0.04167       -0.02083
 BRILLOUIN|   133           0.00058       -0.45833       -0.04167        0.02083
 BRILLOUIN|   134           0.00058       -0.45833       -0.04167        0.06250
 BRILLOUIN|   135           0.00058       -0.45833       -0.04167        0.10417
 BRILLOUIN|   136           0.00058       -0.45833       -0.04167        0.14583
 BRILLOUIN|   137           0.00058       -0.45833       -0.04167        0.18750
 BRILLOUIN|   138           0.00058       -0.45833       -0.04167        0.22917
 BRILLOUIN|   139           0.00058       -0.45833       -0.04167        0.27083
 BRILLOUIN|   140           0.00058       -0.45833       -0.04167        0.31250
 BRILLOUIN|   141           0.00058       -0.45833       -0.04167        0.35417
 BRILLOUIN|   142           0.00058       -0.45833       -0.04167        0.39583
 BRILLOUIN|   143           0.00058       -0.45833       -0.04167        0.43750
 BRILLOUIN|   144           0.00058       -0.45833       -0.04167        0.47917
 BRILLOUIN|   145           0.00058       -0.45833        0.04167       -0.47917
 BRILLOUIN|   146           0.00058       -0.45833        0.04167       -0.43750
 BRILLOUIN|   147           0.00058       -0.45833        0.04167       -0.39583
 BRILLOUIN|   148           0.00058       -0.45833        0.04167       -0.35417
 BRILLOUIN|   149           0.00058       -0.45833        0.04167       -0.31250
 BRILLOUIN|   150           0.00058       -0.45833        0.04167       -0.27083
 BRILLOUIN|   151           0.00058       -0.45833        0.04167       -0.22917
 BRILLOUIN|   152           0.00058       -0.45833        0.04167       -0.18750
 BRILLOUIN|   153           0.00058       -0.45833        0.04167       -0.14583
 BRILLOUIN|   154           0.00058       -0.45833        0.04167       -0.10417
 BRILLOUIN|   155           0.00058       -0.45833        0.04167       -0.06250
 BRILLOUIN|   156           0.00058       -0.45833        0.04167       -0.02083
 BRILLOUIN|   157           0.00058       -0.45833        0.04167        0.02083
 BRILLOUIN|   158           0.00058       -0.45833        0.04167        0.06250
 BRILLOUIN|   159           0.00058       -0.45833        0.04167        0.10417
 BRILLOUIN|   160           0.00058       -0.45833        0.04167        0.14583
 BRILLOUIN|   161           0.00058       -0.45833        0.04167        0.18750
 BRILLOUIN|   162           0.00058       -0.45833        0.04167        0.22917
 BRILLOUIN|   163           0.00058       -0.45833        0.04167        0.27083
 BRILLOUIN|   164           0.00058       -0.45833        0.04167        0.31250
 BRILLOUIN|   165           0.00058       -0.45833        0.04167        0.35417
 BRILLOUIN|   166           0.00058       -0.45833        0.04167        0.39583
 BRILLOUIN|   167           0.00058       -0.45833        0.04167        0.43750
 BRILLOUIN|   168           0.00058       -0.45833        0.04167        0.47917
 BRILLOUIN|   169           0.00058       -0.45833        0.12500       -0.47917
 BRILLOUIN|   170           0.00058       -0.45833        0.12500       -0.43750
 BRILLOUIN|   171           0.00058       -0.45833        0.12500       -0.39583
 BRILLOUIN|   172           0.00058       -0.45833        0.12500       -0.35417
 BRILLOUIN|   173           0.00058       -0.45833        0.12500       -0.31250
 BRILLOUIN|   174           0.00058       -0.45833        0.12500       -0.27083
 BRILLOUIN|   175           0.00058       -0.45833        0.12500       -0.22917
 BRILLOUIN|   176           0.00058       -0.45833        0.12500       -0.18750
 BRILLOUIN|   177           0.00058       -0.45833        0.12500       -0.14583
 BRILLOUIN|   178           0.00058       -0.45833        0.12500       -0.10417
 BRILLOUIN|   179           0.00058       -0.45833        0.12500       -0.06250
 BRILLOUIN|   180           0.00058       -0.45833        0.12500       -0.02083
 BRILLOUIN|   181           0.00058       -0.45833        0.12500        0.02083
 BRILLOUIN|   182           0.00058       -0.45833        0.12500        0.06250
 BRILLOUIN|   183           0.00058       -0.45833        0.12500        0.10417
 BRILLOUIN|   184           0.00058       -0.45833        0.12500        0.14583
 BRILLOUIN|   185           0.00058       -0.45833        0.12500        0.18750
 BRILLOUIN|   186           0.00058       -0.45833        0.12500        0.22917
 BRILLOUIN|   187           0.00058       -0.45833        0.12500        0.27083
 BRILLOUIN|   188           0.00058       -0.45833        0.12500        0.31250
 BRILLOUIN|   189           0.00058       -0.45833        0.12500        0.35417
 BRILLOUIN|   190           0.00058       -0.45833        0.12500        0.39583
 BRILLOUIN|   191           0.00058       -0.45833        0.12500        0.43750
 BRILLOUIN|   192           0.00058       -0.45833        0.12500        0.47917
 BRILLOUIN|   193           0.00058       -0.45833        0.20833       -0.47917
 BRILLOUIN|   194           0.00058       -0.45833        0.20833       -0.43750
 BRILLOUIN|   195           0.00058       -0.45833        0.20833       -0.39583
 BRILLOUIN|   196           0.00058       -0.45833        0.20833       -0.35417
 BRILLOUIN|   197           0.00058       -0.45833        0.20833       -0.31250
 BRILLOUIN|   198           0.00058       -0.45833        0.20833       -0.27083
 BRILLOUIN|   199           0.00058       -0.45833        0.20833       -0.22917
 BRILLOUIN|   200           0.00058       -0.45833        0.20833       -0.18750
 BRILLOUIN|   201           0.00058       -0.45833        0.20833       -0.14583
 BRILLOUIN|   202           0.00058       -0.45833        0.20833       -0.10417
 BRILLOUIN|   203           0.00058       -0.45833        0.20833       -0.06250
 BRILLOUIN|   204           0.00058       -0.45833        0.20833       -0.02083
 BRILLOUIN|   205           0.00058       -0.45833        0.20833        0.02083
 BRILLOUIN|   206           0.00058       -0.45833        0.20833        0.06250
 BRILLOUIN|   207           0.00058       -0.45833        0.20833        0.10417
 BRILLOUIN|   208           0.00058       -0.45833        0.20833        0.14583
 BRILLOUIN|   209           0.00058       -0.45833        0.20833        0.18750
 BRILLOUIN|   210           0.00058       -0.45833        0.20833        0.22917
 BRILLOUIN|   211           0.00058       -0.45833        0.20833        0.27083
 BRILLOUIN|   212           0.00058       -0.45833        0.20833        0.31250
 BRILLOUIN|   213           0.00058       -0.45833        0.20833        0.35417
 BRILLOUIN|   214           0.00058       -0.45833        0.20833        0.39583
 BRILLOUIN|   215           0.00058       -0.45833        0.20833        0.43750
 BRILLOUIN|   216           0.00058       -0.45833        0.20833        0.47917
 BRILLOUIN|   217           0.00058       -0.45833        0.29167       -0.47917
 BRILLOUIN|   218           0.00058       -0.45833        0.29167       -0.43750
 BRILLOUIN|   219           0.00058       -0.45833        0.29167       -0.39583
 BRILLOUIN|   220           0.00058       -0.45833        0.29167       -0.35417
 BRILLOUIN|   221           0.00058       -0.45833        0.29167       -0.31250
 BRILLOUIN|   222           0.00058       -0.45833        0.29167       -0.27083
 BRILLOUIN|   223           0.00058       -0.45833        0.29167       -0.22917
 BRILLOUIN|   224           0.00058       -0.45833        0.29167       -0.18750
 BRILLOUIN|   225           0.00058       -0.45833        0.29167       -0.14583
 BRILLOUIN|   226           0.00058       -0.45833        0.29167       -0.10417
 BRILLOUIN|   227           0.00058       -0.45833        0.29167       -0.06250
 BRILLOUIN|   228           0.00058       -0.45833        0.29167       -0.02083
 BRILLOUIN|   229           0.00058       -0.45833        0.29167        0.02083
 BRILLOUIN|   230           0.00058       -0.45833        0.29167        0.06250
 BRILLOUIN|   231           0.00058       -0.45833        0.29167        0.10417
 BRILLOUIN|   232           0.00058       -0.45833        0.29167        0.14583
 BRILLOUIN|   233           0.00058       -0.45833        0.29167        0.18750
 BRILLOUIN|   234           0.00058       -0.45833        0.29167        0.22917
 BRILLOUIN|   235           0.00058       -0.45833        0.29167        0.27083
 BRILLOUIN|   236           0.00058       -0.45833        0.29167        0.31250
 BRILLOUIN|   237           0.00058       -0.45833        0.29167        0.35417
 BRILLOUIN|   238           0.00058       -0.45833        0.29167        0.39583
 BRILLOUIN|   239           0.00058       -0.45833        0.29167        0.43750
 BRILLOUIN|   240           0.00058       -0.45833        0.29167        0.47917
 BRILLOUIN|   241           0.00058       -0.45833        0.37500       -0.47917
 BRILLOUIN|   242           0.00058       -0.45833        0.37500       -0.43750
 BRILLOUIN|   243           0.00058       -0.45833        0.37500       -0.39583
 BRILLOUIN|   244           0.00058       -0.45833        0.37500       -0.35417
 BRILLOUIN|   245           0.00058       -0.45833        0.37500       -0.31250
 BRILLOUIN|   246           0.00058       -0.45833        0.37500       -0.27083
 BRILLOUIN|   247           0.00058       -0.45833        0.37500       -0.22917
 BRILLOUIN|   248           0.00058       -0.45833        0.37500       -0.18750
 BRILLOUIN|   249           0.00058       -0.45833        0.37500       -0.14583
 BRILLOUIN|   250           0.00058       -0.45833        0.37500       -0.10417
 BRILLOUIN|   251           0.00058       -0.45833        0.37500       -0.06250
 BRILLOUIN|   252           0.00058       -0.45833        0.37500       -0.02083
 BRILLOUIN|   253           0.00058       -0.45833        0.37500        0.02083
 BRILLOUIN|   254           0.00058       -0.45833        0.37500        0.06250
 BRILLOUIN|   255           0.00058       -0.45833        0.37500        0.10417
 BRILLOUIN|   256           0.00058       -0.45833        0.37500        0.14583
 BRILLOUIN|   257           0.00058       -0.45833        0.37500        0.18750
 BRILLOUIN|   258           0.00058       -0.45833        0.37500        0.22917
 BRILLOUIN|   259           0.00058       -0.45833        0.37500        0.27083
 BRILLOUIN|   260           0.00058       -0.45833        0.37500        0.31250
 BRILLOUIN|   261           0.00058       -0.45833        0.37500        0.35417
 BRILLOUIN|   262           0.00058       -0.45833        0.37500        0.39583
 BRILLOUIN|   263           0.00058       -0.45833        0.37500        0.43750
 BRILLOUIN|   264           0.00058       -0.45833        0.37500        0.47917
 BRILLOUIN|   265           0.00058       -0.45833        0.45833       -0.47917
 BRILLOUIN|   266           0.00058       -0.45833        0.45833       -0.43750
 BRILLOUIN|   267           0.00058       -0.45833        0.45833       -0.39583
 BRILLOUIN|   268           0.00058       -0.45833        0.45833       -0.35417
 BRILLOUIN|   269           0.00058       -0.45833        0.45833       -0.31250
 BRILLOUIN|   270           0.00058       -0.45833        0.45833       -0.27083
 BRILLOUIN|   271           0.00058       -0.45833        0.45833       -0.22917
 BRILLOUIN|   272           0.00058       -0.45833        0.45833       -0.18750
 BRILLOUIN|   273           0.00058       -0.45833        0.45833       -0.14583
 BRILLOUIN|   274           0.00058       -0.45833        0.45833       -0.10417
 BRILLOUIN|   275           0.00058       -0.45833        0.45833       -0.06250
 BRILLOUIN|   276           0.00058       -0.45833        0.45833       -0.02083
 BRILLOUIN|   277           0.00058       -0.45833        0.45833        0.02083
 BRILLOUIN|   278           0.00058       -0.45833        0.45833        0.06250
 BRILLOUIN|   279           0.00058       -0.45833        0.45833        0.10417
 BRILLOUIN|   280           0.00058       -0.45833        0.45833        0.14583
 BRILLOUIN|   281           0.00058       -0.45833        0.45833        0.18750
 BRILLOUIN|   282           0.00058       -0.45833        0.45833        0.22917
 BRILLOUIN|   283           0.00058       -0.45833        0.45833        0.27083
 BRILLOUIN|   284           0.00058       -0.45833        0.45833        0.31250
 BRILLOUIN|   285           0.00058       -0.45833        0.45833        0.35417
 BRILLOUIN|   286           0.00058       -0.45833        0.45833        0.39583
 BRILLOUIN|   287           0.00058       -0.45833        0.45833        0.43750
 BRILLOUIN|   288           0.00058       -0.45833        0.45833        0.47917
 BRILLOUIN|   289           0.00058       -0.37500       -0.45833       -0.47917
 BRILLOUIN|   290           0.00058       -0.37500       -0.45833       -0.43750
 BRILLOUIN|   291           0.00058       -0.37500       -0.45833       -0.39583
 BRILLOUIN|   292           0.00058       -0.37500       -0.45833       -0.35417
 BRILLOUIN|   293           0.00058       -0.37500       -0.45833       -0.31250
 BRILLOUIN|   294           0.00058       -0.37500       -0.45833       -0.27083
 BRILLOUIN|   295           0.00058       -0.37500       -0.45833       -0.22917
 BRILLOUIN|   296           0.00058       -0.37500       -0.45833       -0.18750
 BRILLOUIN|   297           0.00058       -0.37500       -0.45833       -0.14583
 BRILLOUIN|   298           0.00058       -0.37500       -0.45833       -0.10417
 BRILLOUIN|   299           0.00058       -0.37500       -0.45833       -0.06250
 BRILLOUIN|   300           0.00058       -0.37500       -0.45833       -0.02083
 BRILLOUIN|   301           0.00058       -0.37500       -0.45833        0.02083
 BRILLOUIN|   302           0.00058       -0.37500       -0.45833        0.06250
 BRILLOUIN|   303           0.00058       -0.37500       -0.45833        0.10417
 BRILLOUIN|   304           0.00058       -0.37500       -0.45833        0.14583
 BRILLOUIN|   305           0.00058       -0.37500       -0.45833        0.18750
 BRILLOUIN|   306           0.00058       -0.37500       -0.45833        0.22917
 BRILLOUIN|   307           0.00058       -0.37500       -0.45833        0.27083
 BRILLOUIN|   308           0.00058       -0.37500       -0.45833        0.31250
 BRILLOUIN|   309           0.00058       -0.37500       -0.45833        0.35417
 BRILLOUIN|   310           0.00058       -0.37500       -0.45833        0.39583
 BRILLOUIN|   311           0.00058       -0.37500       -0.45833        0.43750
 BRILLOUIN|   312           0.00058       -0.37500       -0.45833        0.47917
 BRILLOUIN|   313           0.00058       -0.37500       -0.37500       -0.47917
 BRILLOUIN|   314           0.00058       -0.37500       -0.37500       -0.43750
 BRILLOUIN|   315           0.00058       -0.37500       -0.37500       -0.39583
 BRILLOUIN|   316           0.00058       -0.37500       -0.37500       -0.35417
 BRILLOUIN|   317           0.00058       -0.37500       -0.37500       -0.31250
 BRILLOUIN|   318           0.00058       -0.37500       -0.37500       -0.27083
 BRILLOUIN|   319           0.00058       -0.37500       -0.37500       -0.22917
 BRILLOUIN|   320           0.00058       -0.37500       -0.37500       -0.18750
 BRILLOUIN|   321           0.00058       -0.37500       -0.37500       -0.14583
 BRILLOUIN|   322           0.00058       -0.37500       -0.37500       -0.10417
 BRILLOUIN|   323           0.00058       -0.37500       -0.37500       -0.06250
 BRILLOUIN|   324           0.00058       -0.37500       -0.37500       -0.02083
 BRILLOUIN|   325           0.00058       -0.37500       -0.37500        0.02083
 BRILLOUIN|   326           0.00058       -0.37500       -0.37500        0.06250
 BRILLOUIN|   327           0.00058       -0.37500       -0.37500        0.10417
 BRILLOUIN|   328           0.00058       -0.37500       -0.37500        0.14583
 BRILLOUIN|   329           0.00058       -0.37500       -0.37500        0.18750
 BRILLOUIN|   330           0.00058       -0.37500       -0.37500        0.22917
 BRILLOUIN|   331           0.00058       -0.37500       -0.37500        0.27083
 BRILLOUIN|   332           0.00058       -0.37500       -0.37500        0.31250
 BRILLOUIN|   333           0.00058       -0.37500       -0.37500        0.35417
 BRILLOUIN|   334           0.00058       -0.37500       -0.37500        0.39583
 BRILLOUIN|   335           0.00058       -0.37500       -0.37500        0.43750
 BRILLOUIN|   336           0.00058       -0.37500       -0.37500        0.47917
 BRILLOUIN|   337           0.00058       -0.37500       -0.29167       -0.47917
 BRILLOUIN|   338           0.00058       -0.37500       -0.29167       -0.43750
 BRILLOUIN|   339           0.00058       -0.37500       -0.29167       -0.39583
 BRILLOUIN|   340           0.00058       -0.37500       -0.29167       -0.35417
 BRILLOUIN|   341           0.00058       -0.37500       -0.29167       -0.31250
 BRILLOUIN|   342           0.00058       -0.37500       -0.29167       -0.27083
 BRILLOUIN|   343           0.00058       -0.37500       -0.29167       -0.22917
 BRILLOUIN|   344           0.00058       -0.37500       -0.29167       -0.18750
 BRILLOUIN|   345           0.00058       -0.37500       -0.29167       -0.14583
 BRILLOUIN|   346           0.00058       -0.37500       -0.29167       -0.10417
 BRILLOUIN|   347           0.00058       -0.37500       -0.29167       -0.06250
 BRILLOUIN|   348           0.00058       -0.37500       -0.29167       -0.02083
 BRILLOUIN|   349           0.00058       -0.37500       -0.29167        0.02083
 BRILLOUIN|   350           0.00058       -0.37500       -0.29167        0.06250
 BRILLOUIN|   351           0.00058       -0.37500       -0.29167        0.10417
 BRILLOUIN|   352           0.00058       -0.37500       -0.29167        0.14583
 BRILLOUIN|   353           0.00058       -0.37500       -0.29167        0.18750
 BRILLOUIN|   354           0.00058       -0.37500       -0.29167        0.22917
 BRILLOUIN|   355           0.00058       -0.37500       -0.29167        0.27083
 BRILLOUIN|   356           0.00058       -0.37500       -0.29167        0.31250
 BRILLOUIN|   357           0.00058       -0.37500       -0.29167        0.35417
 BRILLOUIN|   358           0.00058       -0.37500       -0.29167        0.39583
 BRILLOUIN|   359           0.00058       -0.37500       -0.29167        0.43750
 BRILLOUIN|   360           0.00058       -0.37500       -0.29167        0.47917
 BRILLOUIN|   361           0.00058       -0.37500       -0.20833       -0.47917
 BRILLOUIN|   362           0.00058       -0.37500       -0.20833       -0.43750
 BRILLOUIN|   363           0.00058       -0.37500       -0.20833       -0.39583
 BRILLOUIN|   364           0.00058       -0.37500       -0.20833       -0.35417
 BRILLOUIN|   365           0.00058       -0.37500       -0.20833       -0.31250
 BRILLOUIN|   366           0.00058       -0.37500       -0.20833       -0.27083
 BRILLOUIN|   367           0.00058       -0.37500       -0.20833       -0.22917
 BRILLOUIN|   368           0.00058       -0.37500       -0.20833       -0.18750
 BRILLOUIN|   369           0.00058       -0.37500       -0.20833       -0.14583
 BRILLOUIN|   370           0.00058       -0.37500       -0.20833       -0.10417
 BRILLOUIN|   371           0.00058       -0.37500       -0.20833       -0.06250
 BRILLOUIN|   372           0.00058       -0.37500       -0.20833       -0.02083
 BRILLOUIN|   373           0.00058       -0.37500       -0.20833        0.02083
 BRILLOUIN|   374           0.00058       -0.37500       -0.20833        0.06250
 BRILLOUIN|   375           0.00058       -0.37500       -0.20833        0.10417
 BRILLOUIN|   376           0.00058       -0.37500       -0.20833        0.14583
 BRILLOUIN|   377           0.00058       -0.37500       -0.20833        0.18750
 BRILLOUIN|   378           0.00058       -0.37500       -0.20833        0.22917
 BRILLOUIN|   379           0.00058       -0.37500       -0.20833        0.27083
 BRILLOUIN|   380           0.00058       -0.37500       -0.20833        0.31250
 BRILLOUIN|   381           0.00058       -0.37500       -0.20833        0.35417
 BRILLOUIN|   382           0.00058       -0.37500       -0.20833        0.39583
 BRILLOUIN|   383           0.00058       -0.37500       -0.20833        0.43750
 BRILLOUIN|   384           0.00058       -0.37500       -0.20833        0.47917
 BRILLOUIN|   385           0.00058       -0.37500       -0.12500       -0.47917
 BRILLOUIN|   386           0.00058       -0.37500       -0.12500       -0.43750
 BRILLOUIN|   387           0.00058       -0.37500       -0.12500       -0.39583
 BRILLOUIN|   388           0.00058       -0.37500       -0.12500       -0.35417
 BRILLOUIN|   389           0.00058       -0.37500       -0.12500       -0.31250
 BRILLOUIN|   390           0.00058       -0.37500       -0.12500       -0.27083
 BRILLOUIN|   391           0.00058       -0.37500       -0.12500       -0.22917
 BRILLOUIN|   392           0.00058       -0.37500       -0.12500       -0.18750
 BRILLOUIN|   393           0.00058       -0.37500       -0.12500       -0.14583
 BRILLOUIN|   394           0.00058       -0.37500       -0.12500       -0.10417
 BRILLOUIN|   395           0.00058       -0.37500       -0.12500       -0.06250
 BRILLOUIN|   396           0.00058       -0.37500       -0.12500       -0.02083
 BRILLOUIN|   397           0.00058       -0.37500       -0.12500        0.02083
 BRILLOUIN|   398           0.00058       -0.37500       -0.12500        0.06250
 BRILLOUIN|   399           0.00058       -0.37500       -0.12500        0.10417
 BRILLOUIN|   400           0.00058       -0.37500       -0.12500        0.14583
 BRILLOUIN|   401           0.00058       -0.37500       -0.12500        0.18750
 BRILLOUIN|   402           0.00058       -0.37500       -0.12500        0.22917
 BRILLOUIN|   403           0.00058       -0.37500       -0.12500        0.27083
 BRILLOUIN|   404           0.00058       -0.37500       -0.12500        0.31250
 BRILLOUIN|   405           0.00058       -0.37500       -0.12500        0.35417
 BRILLOUIN|   406           0.00058       -0.37500       -0.12500        0.39583
 BRILLOUIN|   407           0.00058       -0.37500       -0.12500        0.43750
 BRILLOUIN|   408           0.00058       -0.37500       -0.12500        0.47917
 BRILLOUIN|   409           0.00058       -0.37500       -0.04167       -0.47917
 BRILLOUIN|   410           0.00058       -0.37500       -0.04167       -0.43750
 BRILLOUIN|   411           0.00058       -0.37500       -0.04167       -0.39583
 BRILLOUIN|   412           0.00058       -0.37500       -0.04167       -0.35417
 BRILLOUIN|   413           0.00058       -0.37500       -0.04167       -0.31250
 BRILLOUIN|   414           0.00058       -0.37500       -0.04167       -0.27083
 BRILLOUIN|   415           0.00058       -0.37500       -0.04167       -0.22917
 BRILLOUIN|   416           0.00058       -0.37500       -0.04167       -0.18750
 BRILLOUIN|   417           0.00058       -0.37500       -0.04167       -0.14583
 BRILLOUIN|   418           0.00058       -0.37500       -0.04167       -0.10417
 BRILLOUIN|   419           0.00058       -0.37500       -0.04167       -0.06250
 BRILLOUIN|   420           0.00058       -0.37500       -0.04167       -0.02083
 BRILLOUIN|   421           0.00058       -0.37500       -0.04167        0.02083
 BRILLOUIN|   422           0.00058       -0.37500       -0.04167        0.06250
 BRILLOUIN|   423           0.00058       -0.37500       -0.04167        0.10417
 BRILLOUIN|   424           0.00058       -0.37500       -0.04167        0.14583
 BRILLOUIN|   425           0.00058       -0.37500       -0.04167        0.18750
 BRILLOUIN|   426           0.00058       -0.37500       -0.04167        0.22917
 BRILLOUIN|   427           0.00058       -0.37500       -0.04167        0.27083
 BRILLOUIN|   428           0.00058       -0.37500       -0.04167        0.31250
 BRILLOUIN|   429           0.00058       -0.37500       -0.04167        0.35417
 BRILLOUIN|   430           0.00058       -0.37500       -0.04167        0.39583
 BRILLOUIN|   431           0.00058       -0.37500       -0.04167        0.43750
 BRILLOUIN|   432           0.00058       -0.37500       -0.04167        0.47917
 BRILLOUIN|   433           0.00058       -0.37500        0.04167       -0.47917
 BRILLOUIN|   434           0.00058       -0.37500        0.04167       -0.43750
 BRILLOUIN|   435           0.00058       -0.37500        0.04167       -0.39583
 BRILLOUIN|   436           0.00058       -0.37500        0.04167       -0.35417
 BRILLOUIN|   437           0.00058       -0.37500        0.04167       -0.31250
 BRILLOUIN|   438           0.00058       -0.37500        0.04167       -0.27083
 BRILLOUIN|   439           0.00058       -0.37500        0.04167       -0.22917
 BRILLOUIN|   440           0.00058       -0.37500        0.04167       -0.18750
 BRILLOUIN|   441           0.00058       -0.37500        0.04167       -0.14583
 BRILLOUIN|   442           0.00058       -0.37500        0.04167       -0.10417
 BRILLOUIN|   443           0.00058       -0.37500        0.04167       -0.06250
 BRILLOUIN|   444           0.00058       -0.37500        0.04167       -0.02083
 BRILLOUIN|   445           0.00058       -0.37500        0.04167        0.02083
 BRILLOUIN|   446           0.00058       -0.37500        0.04167        0.06250
 BRILLOUIN|   447           0.00058       -0.37500        0.04167        0.10417
 BRILLOUIN|   448           0.00058       -0.37500        0.04167        0.14583
 BRILLOUIN|   449           0.00058       -0.37500        0.04167        0.18750
 BRILLOUIN|   450           0.00058       -0.37500        0.04167        0.22917
 BRILLOUIN|   451           0.00058       -0.37500        0.04167        0.27083
 BRILLOUIN|   452           0.00058       -0.37500        0.04167        0.31250
 BRILLOUIN|   453           0.00058       -0.37500        0.04167        0.35417
 BRILLOUIN|   454           0.00058       -0.37500        0.04167        0.39583
 BRILLOUIN|   455           0.00058       -0.37500        0.04167        0.43750
 BRILLOUIN|   456           0.00058       -0.37500        0.04167        0.47917
 BRILLOUIN|   457           0.00058       -0.37500        0.12500       -0.47917
 BRILLOUIN|   458           0.00058       -0.37500        0.12500       -0.43750
 BRILLOUIN|   459           0.00058       -0.37500        0.12500       -0.39583
 BRILLOUIN|   460           0.00058       -0.37500        0.12500       -0.35417
 BRILLOUIN|   461           0.00058       -0.37500        0.12500       -0.31250
 BRILLOUIN|   462           0.00058       -0.37500        0.12500       -0.27083
 BRILLOUIN|   463           0.00058       -0.37500        0.12500       -0.22917
 BRILLOUIN|   464           0.00058       -0.37500        0.12500       -0.18750
 BRILLOUIN|   465           0.00058       -0.37500        0.12500       -0.14583
 BRILLOUIN|   466           0.00058       -0.37500        0.12500       -0.10417
 BRILLOUIN|   467           0.00058       -0.37500        0.12500       -0.06250
 BRILLOUIN|   468           0.00058       -0.37500        0.12500       -0.02083
 BRILLOUIN|   469           0.00058       -0.37500        0.12500        0.02083
 BRILLOUIN|   470           0.00058       -0.37500        0.12500        0.06250
 BRILLOUIN|   471           0.00058       -0.37500        0.12500        0.10417
 BRILLOUIN|   472           0.00058       -0.37500        0.12500        0.14583
 BRILLOUIN|   473           0.00058       -0.37500        0.12500        0.18750
 BRILLOUIN|   474           0.00058       -0.37500        0.12500        0.22917
 BRILLOUIN|   475           0.00058       -0.37500        0.12500        0.27083
 BRILLOUIN|   476           0.00058       -0.37500        0.12500        0.31250
 BRILLOUIN|   477           0.00058       -0.37500        0.12500        0.35417
 BRILLOUIN|   478           0.00058       -0.37500        0.12500        0.39583
 BRILLOUIN|   479           0.00058       -0.37500        0.12500        0.43750
 BRILLOUIN|   480           0.00058       -0.37500        0.12500        0.47917
 BRILLOUIN|   481           0.00058       -0.37500        0.20833       -0.47917
 BRILLOUIN|   482           0.00058       -0.37500        0.20833       -0.43750
 BRILLOUIN|   483           0.00058       -0.37500        0.20833       -0.39583
 BRILLOUIN|   484           0.00058       -0.37500        0.20833       -0.35417
 BRILLOUIN|   485           0.00058       -0.37500        0.20833       -0.31250
 BRILLOUIN|   486           0.00058       -0.37500        0.20833       -0.27083
 BRILLOUIN|   487           0.00058       -0.37500        0.20833       -0.22917
 BRILLOUIN|   488           0.00058       -0.37500        0.20833       -0.18750
 BRILLOUIN|   489           0.00058       -0.37500        0.20833       -0.14583
 BRILLOUIN|   490           0.00058       -0.37500        0.20833       -0.10417
 BRILLOUIN|   491           0.00058       -0.37500        0.20833       -0.06250
 BRILLOUIN|   492           0.00058       -0.37500        0.20833       -0.02083
 BRILLOUIN|   493           0.00058       -0.37500        0.20833        0.02083
 BRILLOUIN|   494           0.00058       -0.37500        0.20833        0.06250
 BRILLOUIN|   495           0.00058       -0.37500        0.20833        0.10417
 BRILLOUIN|   496           0.00058       -0.37500        0.20833        0.14583
 BRILLOUIN|   497           0.00058       -0.37500        0.20833        0.18750
 BRILLOUIN|   498           0.00058       -0.37500        0.20833        0.22917
 BRILLOUIN|   499           0.00058       -0.37500        0.20833        0.27083
 BRILLOUIN|   500           0.00058       -0.37500        0.20833        0.31250
 BRILLOUIN|   501           0.00058       -0.37500        0.20833        0.35417
 BRILLOUIN|   502           0.00058       -0.37500        0.20833        0.39583
 BRILLOUIN|   503           0.00058       -0.37500        0.20833        0.43750
 BRILLOUIN|   504           0.00058       -0.37500        0.20833        0.47917
 BRILLOUIN|   505           0.00058       -0.37500        0.29167       -0.47917
 BRILLOUIN|   506           0.00058       -0.37500        0.29167       -0.43750
 BRILLOUIN|   507           0.00058       -0.37500        0.29167       -0.39583
 BRILLOUIN|   508           0.00058       -0.37500        0.29167       -0.35417
 BRILLOUIN|   509           0.00058       -0.37500        0.29167       -0.31250
 BRILLOUIN|   510           0.00058       -0.37500        0.29167       -0.27083
 BRILLOUIN|   511           0.00058       -0.37500        0.29167       -0.22917
 BRILLOUIN|   512           0.00058       -0.37500        0.29167       -0.18750
 BRILLOUIN|   513           0.00058       -0.37500        0.29167       -0.14583
 BRILLOUIN|   514           0.00058       -0.37500        0.29167       -0.10417
 BRILLOUIN|   515           0.00058       -0.37500        0.29167       -0.06250
 BRILLOUIN|   516           0.00058       -0.37500        0.29167       -0.02083
 BRILLOUIN|   517           0.00058       -0.37500        0.29167        0.02083
 BRILLOUIN|   518           0.00058       -0.37500        0.29167        0.06250
 BRILLOUIN|   519           0.00058       -0.37500        0.29167        0.10417
 BRILLOUIN|   520           0.00058       -0.37500        0.29167        0.14583
 BRILLOUIN|   521           0.00058       -0.37500        0.29167        0.18750
 BRILLOUIN|   522           0.00058       -0.37500        0.29167        0.22917
 BRILLOUIN|   523           0.00058       -0.37500        0.29167        0.27083
 BRILLOUIN|   524           0.00058       -0.37500        0.29167        0.31250
 BRILLOUIN|   525           0.00058       -0.37500        0.29167        0.35417
 BRILLOUIN|   526           0.00058       -0.37500        0.29167        0.39583
 BRILLOUIN|   527           0.00058       -0.37500        0.29167        0.43750
 BRILLOUIN|   528           0.00058       -0.37500        0.29167        0.47917
 BRILLOUIN|   529           0.00058       -0.37500        0.37500       -0.47917
 BRILLOUIN|   530           0.00058       -0.37500        0.37500       -0.43750
 BRILLOUIN|   531           0.00058       -0.37500        0.37500       -0.39583
 BRILLOUIN|   532           0.00058       -0.37500        0.37500       -0.35417
 BRILLOUIN|   533           0.00058       -0.37500        0.37500       -0.31250
 BRILLOUIN|   534           0.00058       -0.37500        0.37500       -0.27083
 BRILLOUIN|   535           0.00058       -0.37500        0.37500       -0.22917
 BRILLOUIN|   536           0.00058       -0.37500        0.37500       -0.18750
 BRILLOUIN|   537           0.00058       -0.37500        0.37500       -0.14583
 BRILLOUIN|   538           0.00058       -0.37500        0.37500       -0.10417
 BRILLOUIN|   539           0.00058       -0.37500        0.37500       -0.06250
 BRILLOUIN|   540           0.00058       -0.37500        0.37500       -0.02083
 BRILLOUIN|   541           0.00058       -0.37500        0.37500        0.02083
 BRILLOUIN|   542           0.00058       -0.37500        0.37500        0.06250
 BRILLOUIN|   543           0.00058       -0.37500        0.37500        0.10417
 BRILLOUIN|   544           0.00058       -0.37500        0.37500        0.14583
 BRILLOUIN|   545           0.00058       -0.37500        0.37500        0.18750
 BRILLOUIN|   546           0.00058       -0.37500        0.37500        0.22917
 BRILLOUIN|   547           0.00058       -0.37500        0.37500        0.27083
 BRILLOUIN|   548           0.00058       -0.37500        0.37500        0.31250
 BRILLOUIN|   549           0.00058       -0.37500        0.37500        0.35417
 BRILLOUIN|   550           0.00058       -0.37500        0.37500        0.39583
 BRILLOUIN|   551           0.00058       -0.37500        0.37500        0.43750
 BRILLOUIN|   552           0.00058       -0.37500        0.37500        0.47917
 BRILLOUIN|   553           0.00058       -0.37500        0.45833       -0.47917
 BRILLOUIN|   554           0.00058       -0.37500        0.45833       -0.43750
 BRILLOUIN|   555           0.00058       -0.37500        0.45833       -0.39583
 BRILLOUIN|   556           0.00058       -0.37500        0.45833       -0.35417
 BRILLOUIN|   557           0.00058       -0.37500        0.45833       -0.31250
 BRILLOUIN|   558           0.00058       -0.37500        0.45833       -0.27083
 BRILLOUIN|   559           0.00058       -0.37500        0.45833       -0.22917
 BRILLOUIN|   560           0.00058       -0.37500        0.45833       -0.18750
 BRILLOUIN|   561           0.00058       -0.37500        0.45833       -0.14583
 BRILLOUIN|   562           0.00058       -0.37500        0.45833       -0.10417
 BRILLOUIN|   563           0.00058       -0.37500        0.45833       -0.06250
 BRILLOUIN|   564           0.00058       -0.37500        0.45833       -0.02083
 BRILLOUIN|   565           0.00058       -0.37500        0.45833        0.02083
 BRILLOUIN|   566           0.00058       -0.37500        0.45833        0.06250
 BRILLOUIN|   567           0.00058       -0.37500        0.45833        0.10417
 BRILLOUIN|   568           0.00058       -0.37500        0.45833        0.14583
 BRILLOUIN|   569           0.00058       -0.37500        0.45833        0.18750
 BRILLOUIN|   570           0.00058       -0.37500        0.45833        0.22917
 BRILLOUIN|   571           0.00058       -0.37500        0.45833        0.27083
 BRILLOUIN|   572           0.00058       -0.37500        0.45833        0.31250
 BRILLOUIN|   573           0.00058       -0.37500        0.45833        0.35417
 BRILLOUIN|   574           0.00058       -0.37500        0.45833        0.39583
 BRILLOUIN|   575           0.00058       -0.37500        0.45833        0.43750
 BRILLOUIN|   576           0.00058       -0.37500        0.45833        0.47917
 BRILLOUIN|   577           0.00058       -0.29167       -0.45833       -0.47917
 BRILLOUIN|   578           0.00058       -0.29167       -0.45833       -0.43750
 BRILLOUIN|   579           0.00058       -0.29167       -0.45833       -0.39583
 BRILLOUIN|   580           0.00058       -0.29167       -0.45833       -0.35417
 BRILLOUIN|   581           0.00058       -0.29167       -0.45833       -0.31250
 BRILLOUIN|   582           0.00058       -0.29167       -0.45833       -0.27083
 BRILLOUIN|   583           0.00058       -0.29167       -0.45833       -0.22917
 BRILLOUIN|   584           0.00058       -0.29167       -0.45833       -0.18750
 BRILLOUIN|   585           0.00058       -0.29167       -0.45833       -0.14583
 BRILLOUIN|   586           0.00058       -0.29167       -0.45833       -0.10417
 BRILLOUIN|   587           0.00058       -0.29167       -0.45833       -0.06250
 BRILLOUIN|   588           0.00058       -0.29167       -0.45833       -0.02083
 BRILLOUIN|   589           0.00058       -0.29167       -0.45833        0.02083
 BRILLOUIN|   590           0.00058       -0.29167       -0.45833        0.06250
 BRILLOUIN|   591           0.00058       -0.29167       -0.45833        0.10417
 BRILLOUIN|   592           0.00058       -0.29167       -0.45833        0.14583
 BRILLOUIN|   593           0.00058       -0.29167       -0.45833        0.18750
 BRILLOUIN|   594           0.00058       -0.29167       -0.45833        0.22917
 BRILLOUIN|   595           0.00058       -0.29167       -0.45833        0.27083
 BRILLOUIN|   596           0.00058       -0.29167       -0.45833        0.31250
 BRILLOUIN|   597           0.00058       -0.29167       -0.45833        0.35417
 BRILLOUIN|   598           0.00058       -0.29167       -0.45833        0.39583
 BRILLOUIN|   599           0.00058       -0.29167       -0.45833        0.43750
 BRILLOUIN|   600           0.00058       -0.29167       -0.45833        0.47917
 BRILLOUIN|   601           0.00058       -0.29167       -0.37500       -0.47917
 BRILLOUIN|   602           0.00058       -0.29167       -0.37500       -0.43750
 BRILLOUIN|   603           0.00058       -0.29167       -0.37500       -0.39583
 BRILLOUIN|   604           0.00058       -0.29167       -0.37500       -0.35417
 BRILLOUIN|   605           0.00058       -0.29167       -0.37500       -0.31250
 BRILLOUIN|   606           0.00058       -0.29167       -0.37500       -0.27083
 BRILLOUIN|   607           0.00058       -0.29167       -0.37500       -0.22917
 BRILLOUIN|   608           0.00058       -0.29167       -0.37500       -0.18750
 BRILLOUIN|   609           0.00058       -0.29167       -0.37500       -0.14583
 BRILLOUIN|   610           0.00058       -0.29167       -0.37500       -0.10417
 BRILLOUIN|   611           0.00058       -0.29167       -0.37500       -0.06250
 BRILLOUIN|   612           0.00058       -0.29167       -0.37500       -0.02083
 BRILLOUIN|   613           0.00058       -0.29167       -0.37500        0.02083
 BRILLOUIN|   614           0.00058       -0.29167       -0.37500        0.06250
 BRILLOUIN|   615           0.00058       -0.29167       -0.37500        0.10417
 BRILLOUIN|   616           0.00058       -0.29167       -0.37500        0.14583
 BRILLOUIN|   617           0.00058       -0.29167       -0.37500        0.18750
 BRILLOUIN|   618           0.00058       -0.29167       -0.37500        0.22917
 BRILLOUIN|   619           0.00058       -0.29167       -0.37500        0.27083
 BRILLOUIN|   620           0.00058       -0.29167       -0.37500        0.31250
 BRILLOUIN|   621           0.00058       -0.29167       -0.37500        0.35417
 BRILLOUIN|   622           0.00058       -0.29167       -0.37500        0.39583
 BRILLOUIN|   623           0.00058       -0.29167       -0.37500        0.43750
 BRILLOUIN|   624           0.00058       -0.29167       -0.37500        0.47917
 BRILLOUIN|   625           0.00058       -0.29167       -0.29167       -0.47917
 BRILLOUIN|   626           0.00058       -0.29167       -0.29167       -0.43750
 BRILLOUIN|   627           0.00058       -0.29167       -0.29167       -0.39583
 BRILLOUIN|   628           0.00058       -0.29167       -0.29167       -0.35417
 BRILLOUIN|   629           0.00058       -0.29167       -0.29167       -0.31250
 BRILLOUIN|   630           0.00058       -0.29167       -0.29167       -0.27083
 BRILLOUIN|   631           0.00058       -0.29167       -0.29167       -0.22917
 BRILLOUIN|   632           0.00058       -0.29167       -0.29167       -0.18750
 BRILLOUIN|   633           0.00058       -0.29167       -0.29167       -0.14583
 BRILLOUIN|   634           0.00058       -0.29167       -0.29167       -0.10417
 BRILLOUIN|   635           0.00058       -0.29167       -0.29167       -0.06250
 BRILLOUIN|   636           0.00058       -0.29167       -0.29167       -0.02083
 BRILLOUIN|   637           0.00058       -0.29167       -0.29167        0.02083
 BRILLOUIN|   638           0.00058       -0.29167       -0.29167        0.06250
 BRILLOUIN|   639           0.00058       -0.29167       -0.29167        0.10417
 BRILLOUIN|   640           0.00058       -0.29167       -0.29167        0.14583
 BRILLOUIN|   641           0.00058       -0.29167       -0.29167        0.18750
 BRILLOUIN|   642           0.00058       -0.29167       -0.29167        0.22917
 BRILLOUIN|   643           0.00058       -0.29167       -0.29167        0.27083
 BRILLOUIN|   644           0.00058       -0.29167       -0.29167        0.31250
 BRILLOUIN|   645           0.00058       -0.29167       -0.29167        0.35417
 BRILLOUIN|   646           0.00058       -0.29167       -0.29167        0.39583
 BRILLOUIN|   647           0.00058       -0.29167       -0.29167        0.43750
 BRILLOUIN|   648           0.00058       -0.29167       -0.29167        0.47917
 BRILLOUIN|   649           0.00058       -0.29167       -0.20833       -0.47917
 BRILLOUIN|   650           0.00058       -0.29167       -0.20833       -0.43750
 BRILLOUIN|   651           0.00058       -0.29167       -0.20833       -0.39583
 BRILLOUIN|   652           0.00058       -0.29167       -0.20833       -0.35417
 BRILLOUIN|   653           0.00058       -0.29167       -0.20833       -0.31250
 BRILLOUIN|   654           0.00058       -0.29167       -0.20833       -0.27083
 BRILLOUIN|   655           0.00058       -0.29167       -0.20833       -0.22917
 BRILLOUIN|   656           0.00058       -0.29167       -0.20833       -0.18750
 BRILLOUIN|   657           0.00058       -0.29167       -0.20833       -0.14583
 BRILLOUIN|   658           0.00058       -0.29167       -0.20833       -0.10417
 BRILLOUIN|   659           0.00058       -0.29167       -0.20833       -0.06250
 BRILLOUIN|   660           0.00058       -0.29167       -0.20833       -0.02083
 BRILLOUIN|   661           0.00058       -0.29167       -0.20833        0.02083
 BRILLOUIN|   662           0.00058       -0.29167       -0.20833        0.06250
 BRILLOUIN|   663           0.00058       -0.29167       -0.20833        0.10417
 BRILLOUIN|   664           0.00058       -0.29167       -0.20833        0.14583
 BRILLOUIN|   665           0.00058       -0.29167       -0.20833        0.18750
 BRILLOUIN|   666           0.00058       -0.29167       -0.20833        0.22917
 BRILLOUIN|   667           0.00058       -0.29167       -0.20833        0.27083
 BRILLOUIN|   668           0.00058       -0.29167       -0.20833        0.31250
 BRILLOUIN|   669           0.00058       -0.29167       -0.20833        0.35417
 BRILLOUIN|   670           0.00058       -0.29167       -0.20833        0.39583
 BRILLOUIN|   671           0.00058       -0.29167       -0.20833        0.43750
 BRILLOUIN|   672           0.00058       -0.29167       -0.20833        0.47917
 BRILLOUIN|   673           0.00058       -0.29167       -0.12500       -0.47917
 BRILLOUIN|   674           0.00058       -0.29167       -0.12500       -0.43750
 BRILLOUIN|   675           0.00058       -0.29167       -0.12500       -0.39583
 BRILLOUIN|   676           0.00058       -0.29167       -0.12500       -0.35417
 BRILLOUIN|   677           0.00058       -0.29167       -0.12500       -0.31250
 BRILLOUIN|   678           0.00058       -0.29167       -0.12500       -0.27083
 BRILLOUIN|   679           0.00058       -0.29167       -0.12500       -0.22917
 BRILLOUIN|   680           0.00058       -0.29167       -0.12500       -0.18750
 BRILLOUIN|   681           0.00058       -0.29167       -0.12500       -0.14583
 BRILLOUIN|   682           0.00058       -0.29167       -0.12500       -0.10417
 BRILLOUIN|   683           0.00058       -0.29167       -0.12500       -0.06250
 BRILLOUIN|   684           0.00058       -0.29167       -0.12500       -0.02083
 BRILLOUIN|   685           0.00058       -0.29167       -0.12500        0.02083
 BRILLOUIN|   686           0.00058       -0.29167       -0.12500        0.06250
 BRILLOUIN|   687           0.00058       -0.29167       -0.12500        0.10417
 BRILLOUIN|   688           0.00058       -0.29167       -0.12500        0.14583
 BRILLOUIN|   689           0.00058       -0.29167       -0.12500        0.18750
 BRILLOUIN|   690           0.00058       -0.29167       -0.12500        0.22917
 BRILLOUIN|   691           0.00058       -0.29167       -0.12500        0.27083
 BRILLOUIN|   692           0.00058       -0.29167       -0.12500        0.31250
 BRILLOUIN|   693           0.00058       -0.29167       -0.12500        0.35417
 BRILLOUIN|   694           0.00058       -0.29167       -0.12500        0.39583
 BRILLOUIN|   695           0.00058       -0.29167       -0.12500        0.43750
 BRILLOUIN|   696           0.00058       -0.29167       -0.12500        0.47917
 BRILLOUIN|   697           0.00058       -0.29167       -0.04167       -0.47917
 BRILLOUIN|   698           0.00058       -0.29167       -0.04167       -0.43750
 BRILLOUIN|   699           0.00058       -0.29167       -0.04167       -0.39583
 BRILLOUIN|   700           0.00058       -0.29167       -0.04167       -0.35417
 BRILLOUIN|   701           0.00058       -0.29167       -0.04167       -0.31250
 BRILLOUIN|   702           0.00058       -0.29167       -0.04167       -0.27083
 BRILLOUIN|   703           0.00058       -0.29167       -0.04167       -0.22917
 BRILLOUIN|   704           0.00058       -0.29167       -0.04167       -0.18750
 BRILLOUIN|   705           0.00058       -0.29167       -0.04167       -0.14583
 BRILLOUIN|   706           0.00058       -0.29167       -0.04167       -0.10417
 BRILLOUIN|   707           0.00058       -0.29167       -0.04167       -0.06250
 BRILLOUIN|   708           0.00058       -0.29167       -0.04167       -0.02083
 BRILLOUIN|   709           0.00058       -0.29167       -0.04167        0.02083
 BRILLOUIN|   710           0.00058       -0.29167       -0.04167        0.06250
 BRILLOUIN|   711           0.00058       -0.29167       -0.04167        0.10417
 BRILLOUIN|   712           0.00058       -0.29167       -0.04167        0.14583
 BRILLOUIN|   713           0.00058       -0.29167       -0.04167        0.18750
 BRILLOUIN|   714           0.00058       -0.29167       -0.04167        0.22917
 BRILLOUIN|   715           0.00058       -0.29167       -0.04167        0.27083
 BRILLOUIN|   716           0.00058       -0.29167       -0.04167        0.31250
 BRILLOUIN|   717           0.00058       -0.29167       -0.04167        0.35417
 BRILLOUIN|   718           0.00058       -0.29167       -0.04167        0.39583
 BRILLOUIN|   719           0.00058       -0.29167       -0.04167        0.43750
 BRILLOUIN|   720           0.00058       -0.29167       -0.04167        0.47917
 BRILLOUIN|   721           0.00058       -0.29167        0.04167       -0.47917
 BRILLOUIN|   722           0.00058       -0.29167        0.04167       -0.43750
 BRILLOUIN|   723           0.00058       -0.29167        0.04167       -0.39583
 BRILLOUIN|   724           0.00058       -0.29167        0.04167       -0.35417
 BRILLOUIN|   725           0.00058       -0.29167        0.04167       -0.31250
 BRILLOUIN|   726           0.00058       -0.29167        0.04167       -0.27083
 BRILLOUIN|   727           0.00058       -0.29167        0.04167       -0.22917
 BRILLOUIN|   728           0.00058       -0.29167        0.04167       -0.18750
 BRILLOUIN|   729           0.00058       -0.29167        0.04167       -0.14583
 BRILLOUIN|   730           0.00058       -0.29167        0.04167       -0.10417
 BRILLOUIN|   731           0.00058       -0.29167        0.04167       -0.06250
 BRILLOUIN|   732           0.00058       -0.29167        0.04167       -0.02083
 BRILLOUIN|   733           0.00058       -0.29167        0.04167        0.02083
 BRILLOUIN|   734           0.00058       -0.29167        0.04167        0.06250
 BRILLOUIN|   735           0.00058       -0.29167        0.04167        0.10417
 BRILLOUIN|   736           0.00058       -0.29167        0.04167        0.14583
 BRILLOUIN|   737           0.00058       -0.29167        0.04167        0.18750
 BRILLOUIN|   738           0.00058       -0.29167        0.04167        0.22917
 BRILLOUIN|   739           0.00058       -0.29167        0.04167        0.27083
 BRILLOUIN|   740           0.00058       -0.29167        0.04167        0.31250
 BRILLOUIN|   741           0.00058       -0.29167        0.04167        0.35417
 BRILLOUIN|   742           0.00058       -0.29167        0.04167        0.39583
 BRILLOUIN|   743           0.00058       -0.29167        0.04167        0.43750
 BRILLOUIN|   744           0.00058       -0.29167        0.04167        0.47917
 BRILLOUIN|   745           0.00058       -0.29167        0.12500       -0.47917
 BRILLOUIN|   746           0.00058       -0.29167        0.12500       -0.43750
 BRILLOUIN|   747           0.00058       -0.29167        0.12500       -0.39583
 BRILLOUIN|   748           0.00058       -0.29167        0.12500       -0.35417
 BRILLOUIN|   749           0.00058       -0.29167        0.12500       -0.31250
 BRILLOUIN|   750           0.00058       -0.29167        0.12500       -0.27083
 BRILLOUIN|   751           0.00058       -0.29167        0.12500       -0.22917
 BRILLOUIN|   752           0.00058       -0.29167        0.12500       -0.18750
 BRILLOUIN|   753           0.00058       -0.29167        0.12500       -0.14583
 BRILLOUIN|   754           0.00058       -0.29167        0.12500       -0.10417
 BRILLOUIN|   755           0.00058       -0.29167        0.12500       -0.06250
 BRILLOUIN|   756           0.00058       -0.29167        0.12500       -0.02083
 BRILLOUIN|   757           0.00058       -0.29167        0.12500        0.02083
 BRILLOUIN|   758           0.00058       -0.29167        0.12500        0.06250
 BRILLOUIN|   759           0.00058       -0.29167        0.12500        0.10417
 BRILLOUIN|   760           0.00058       -0.29167        0.12500        0.14583
 BRILLOUIN|   761           0.00058       -0.29167        0.12500        0.18750
 BRILLOUIN|   762           0.00058       -0.29167        0.12500        0.22917
 BRILLOUIN|   763           0.00058       -0.29167        0.12500        0.27083
 BRILLOUIN|   764           0.00058       -0.29167        0.12500        0.31250
 BRILLOUIN|   765           0.00058       -0.29167        0.12500        0.35417
 BRILLOUIN|   766           0.00058       -0.29167        0.12500        0.39583
 BRILLOUIN|   767           0.00058       -0.29167        0.12500        0.43750
 BRILLOUIN|   768           0.00058       -0.29167        0.12500        0.47917
 BRILLOUIN|   769           0.00058       -0.29167        0.20833       -0.47917
 BRILLOUIN|   770           0.00058       -0.29167        0.20833       -0.43750
 BRILLOUIN|   771           0.00058       -0.29167        0.20833       -0.39583
 BRILLOUIN|   772           0.00058       -0.29167        0.20833       -0.35417
 BRILLOUIN|   773           0.00058       -0.29167        0.20833       -0.31250
 BRILLOUIN|   774           0.00058       -0.29167        0.20833       -0.27083
 BRILLOUIN|   775           0.00058       -0.29167        0.20833       -0.22917
 BRILLOUIN|   776           0.00058       -0.29167        0.20833       -0.18750
 BRILLOUIN|   777           0.00058       -0.29167        0.20833       -0.14583
 BRILLOUIN|   778           0.00058       -0.29167        0.20833       -0.10417
 BRILLOUIN|   779           0.00058       -0.29167        0.20833       -0.06250
 BRILLOUIN|   780           0.00058       -0.29167        0.20833       -0.02083
 BRILLOUIN|   781           0.00058       -0.29167        0.20833        0.02083
 BRILLOUIN|   782           0.00058       -0.29167        0.20833        0.06250
 BRILLOUIN|   783           0.00058       -0.29167        0.20833        0.10417
 BRILLOUIN|   784           0.00058       -0.29167        0.20833        0.14583
 BRILLOUIN|   785           0.00058       -0.29167        0.20833        0.18750
 BRILLOUIN|   786           0.00058       -0.29167        0.20833        0.22917
 BRILLOUIN|   787           0.00058       -0.29167        0.20833        0.27083
 BRILLOUIN|   788           0.00058       -0.29167        0.20833        0.31250
 BRILLOUIN|   789           0.00058       -0.29167        0.20833        0.35417
 BRILLOUIN|   790           0.00058       -0.29167        0.20833        0.39583
 BRILLOUIN|   791           0.00058       -0.29167        0.20833        0.43750
 BRILLOUIN|   792           0.00058       -0.29167        0.20833        0.47917
 BRILLOUIN|   793           0.00058       -0.29167        0.29167       -0.47917
 BRILLOUIN|   794           0.00058       -0.29167        0.29167       -0.43750
 BRILLOUIN|   795           0.00058       -0.29167        0.29167       -0.39583
 BRILLOUIN|   796           0.00058       -0.29167        0.29167       -0.35417
 BRILLOUIN|   797           0.00058       -0.29167        0.29167       -0.31250
 BRILLOUIN|   798           0.00058       -0.29167        0.29167       -0.27083
 BRILLOUIN|   799           0.00058       -0.29167        0.29167       -0.22917
 BRILLOUIN|   800           0.00058       -0.29167        0.29167       -0.18750
 BRILLOUIN|   801           0.00058       -0.29167        0.29167       -0.14583
 BRILLOUIN|   802           0.00058       -0.29167        0.29167       -0.10417
 BRILLOUIN|   803           0.00058       -0.29167        0.29167       -0.06250
 BRILLOUIN|   804           0.00058       -0.29167        0.29167       -0.02083
 BRILLOUIN|   805           0.00058       -0.29167        0.29167        0.02083
 BRILLOUIN|   806           0.00058       -0.29167        0.29167        0.06250
 BRILLOUIN|   807           0.00058       -0.29167        0.29167        0.10417
 BRILLOUIN|   808           0.00058       -0.29167        0.29167        0.14583
 BRILLOUIN|   809           0.00058       -0.29167        0.29167        0.18750
 BRILLOUIN|   810           0.00058       -0.29167        0.29167        0.22917
 BRILLOUIN|   811           0.00058       -0.29167        0.29167        0.27083
 BRILLOUIN|   812           0.00058       -0.29167        0.29167        0.31250
 BRILLOUIN|   813           0.00058       -0.29167        0.29167        0.35417
 BRILLOUIN|   814           0.00058       -0.29167        0.29167        0.39583
 BRILLOUIN|   815           0.00058       -0.29167        0.29167        0.43750
 BRILLOUIN|   816           0.00058       -0.29167        0.29167        0.47917
 BRILLOUIN|   817           0.00058       -0.29167        0.37500       -0.47917
 BRILLOUIN|   818           0.00058       -0.29167        0.37500       -0.43750
 BRILLOUIN|   819           0.00058       -0.29167        0.37500       -0.39583
 BRILLOUIN|   820           0.00058       -0.29167        0.37500       -0.35417
 BRILLOUIN|   821           0.00058       -0.29167        0.37500       -0.31250
 BRILLOUIN|   822           0.00058       -0.29167        0.37500       -0.27083
 BRILLOUIN|   823           0.00058       -0.29167        0.37500       -0.22917
 BRILLOUIN|   824           0.00058       -0.29167        0.37500       -0.18750
 BRILLOUIN|   825           0.00058       -0.29167        0.37500       -0.14583
 BRILLOUIN|   826           0.00058       -0.29167        0.37500       -0.10417
 BRILLOUIN|   827           0.00058       -0.29167        0.37500       -0.06250
 BRILLOUIN|   828           0.00058       -0.29167        0.37500       -0.02083
 BRILLOUIN|   829           0.00058       -0.29167        0.37500        0.02083
 BRILLOUIN|   830           0.00058       -0.29167        0.37500        0.06250
 BRILLOUIN|   831           0.00058       -0.29167        0.37500        0.10417
 BRILLOUIN|   832           0.00058       -0.29167        0.37500        0.14583
 BRILLOUIN|   833           0.00058       -0.29167        0.37500        0.18750
 BRILLOUIN|   834           0.00058       -0.29167        0.37500        0.22917
 BRILLOUIN|   835           0.00058       -0.29167        0.37500        0.27083
 BRILLOUIN|   836           0.00058       -0.29167        0.37500        0.31250
 BRILLOUIN|   837           0.00058       -0.29167        0.37500        0.35417
 BRILLOUIN|   838           0.00058       -0.29167        0.37500        0.39583
[...]
 -                                                                             -
 -                              GW CALCULATION                                 -
 -                                                                             -
 -------------------------------------------------------------------------------
  
 Input: Number of time/freq. points                                           10
 Input: Filter threshold for sparse tensor operations                    1.0E-08
 Apply Hedin shift                                                             F
  
 Number of auxiliary Gaussian basis functions for , , W                    402
 Cutoff radius for the truncated Coulomb operator in ^x:                 20.1 
 Cutoff radius for the truncated Coulomb operator in RI metric:            5.0 
 Regularization parameter of RI                                          1.0E-02
  
 K-point mesh 1 for , , W                                           16  16  32
 K-point mesh 2 for , , W (for k-point extrapolation of W)          32  32  64
 Approximate the k-point extrapolation                                         F
 Radius of atomic orbitals                                                 8.3 
 Radius of RI functions                                                    5.3 
 Number of cells for 3c integrals                                            245
 Number of cell pairs for 3c integrals                                      7633
 
 Input: Available memory per MPI process                                 30.0 GB
 Used memory per MPI process before GW run                                0.5 GB
 Memory of three-center integrals                                       813.1 GB
 Group size for tensor operations                                             32
 Number of cells R                                                         1675
 
 SCF direct band gap (eV)                                                   0.72
 Max. SCF eigval diff. (eV)                                               250.73
 E-Range for minimax grid                                                 349.47
 Number of Pad parameters for analytic continuation:                          7
 
 Computed ^R(i) for time point            1 / 10,      Execution time 3704.6 s
 Computed ^R(i) for time point            2 / 10,      Execution time 3597.8 s
 Computed ^R(i) for time point            3 / 10,      Execution time 3460.7 s
 Computed ^R(i) for time point            4 / 10,      Execution time 3318.3 s
 Computed ^R(i) for time point            5 / 10,      Execution time 3169.3 s
 Computed ^R(i) for time point            6 / 10,      Execution time 3041.8 s
 Computed ^R(i) for time point            7 / 10,      Execution time 2972.3 s
 Computed ^R(i) for time point            8 / 10,      Execution time 2901.6 s
 Computed ^R(i) for time point            9 / 10,      Execution time 2797.7 s
 Computed ^R(i) for time point           10 / 10,      Execution time 2655.6 s
 Computed V_PQ(k),                                       Execution time22789.1 s
 
 Computed W_PQ(k,i) for all k and ,                    Execution time 1891.4 s
 
 Computed ^x,                                           Execution time 2579.3 s
 
 Computed ^c(i) for time point            1 / 10,      Execution time 3866.3 s
 Computed ^c(i) for time point            2 / 10,      Execution time 3676.7 s
 Computed ^c(i) for time point            3 / 10,      Execution time 3585.8 s
 Computed ^c(i) for time point            4 / 10,      Execution time 3483.8 s
 Computed ^c(i) for time point            5 / 10,      Execution time 3354.9 s
 Computed ^c(i) for time point            6 / 10,      Execution time 3208.7 s
 Computed ^c(i) for time point            7 / 10,      Execution time 3051.7 s
 Computed ^c(i) for time point            8 / 10,      Execution time 2861.6 s
 Computed ^c(i) for time point            9 / 10,      Execution time 2723.7 s
 Computed ^c(i) for time point           10 / 10,      Execution time 2551.9 s

 
 SCF valence band maximum (eV):                                            2.729
 SCF conduction band minimum (eV):                                         3.446
 SCF indirect band gap (eV):                                               0.717
 SCF direct band gap (eV):                                                 0.869
 
 G0W0 valence band maximum (eV):                                           2.350
 G0W0 conduction band minimum (eV):                                        4.892
 G0W0 indirect band gap (eV):                                              2.542
 G0W0 direct band gap (eV):                                                2.648
 
 Hartree-Fock with SCF orbitals valence band maximum (eV):                 0.035
 Hartree-Fock with SCF orbitals conduction band minimum (eV)               8.103
 Hartree-Fock with SCF orbitals indirect band gap (eV):                    8.068
 Hartree-Fock with SCF orbitals direct band gap (eV):                      9.497

 ENERGY| Total FORCE_EVAL ( QS ) energy [a.u.]:             -113.443064541000524

 -------------------------------------------------------------------------------
 -                                                                             -
 -                                DBCSR STATISTICS                             -
 -                                                                             -
 -------------------------------------------------------------------------------
 COUNTER                                    TOTAL       BLAS       SMM       ACC
 flops inhomo. stacks                           0       0.0%      0.0%      0.0%
 flops total                         0.000000E+00       0.0%      0.0%      0.0%
 flops max/rank                      0.000000E+00       0.0%      0.0%      0.0%
 matmuls inhomo. stacks                         0       0.0%      0.0%      0.0%
 matmuls total                                  0       0.0%      0.0%      0.0%
 number of processed stacks                     0       0.0%      0.0%      0.0%
 average stack size                                     0.0       0.0       0.0
 marketing flops                     0.000000E+00
 -------------------------------------------------------------------------------
 -                                                                             -
 -                      DBCSR MESSAGE PASSING PERFORMANCE                      -
 -                                                                             -
 -------------------------------------------------------------------------------
 ROUTINE             CALLS      AVE VOLUME [Bytes]
 MP_Bcast                1                     12.
 MP_Allreduce         2491                      8.
 MP_Alltoall       3439748                 170008.
 -------------------------------------------------------------------------------

 -------------------------------------------------------------------------------
 -                                                                             -
 -                                DBM STATISTICS                               -
 -                                                                             -
 -------------------------------------------------------------------------------
    M  x    N  x    K                                          COUNT     PERCENT
  ???  x   ??  x   ??                                   148076048928      38.19%
   ??  x   ??  x  ???                                    47158461033      12.16%
    ?  x    ?  x    ?                                   192536800653      49.65%
 -------------------------------------------------------------------------------

 -------------------------------------------------------------------------------
 -                                                                             -
 -                                GRID STATISTICS                              -
 -                                                                             -
 -------------------------------------------------------------------------------
 LP    KERNEL             BACKEND                              COUNT     PERCENT
 4     integrate general  CPU                                 552986      58.33%
 4     collocate general  CPU                                 394990      41.66%
 0     collocate general  CPU                                     28       0.00%
 0     integrate general  CPU                                     14       0.00%
 -------------------------------------------------------------------------------

 MEMORY| Estimated peak process memory [MiB]                               45314

 -------------------------------------------------------------------------------
 -                                                                             -
 -                         MESSAGE PASSING PERFORMANCE                         -
 -                                                                             -
 -------------------------------------------------------------------------------

 ROUTINE             CALLS      AVE VOLUME [Bytes]
 MP_Group         86238561
 MP_Bcast         54594075                     25.
 MP_Allreduce    253870042                   2642.
 MP_Sync         351177346
 MP_Alltoall     127234967
 MP_SendRecv          5610                   5025.
 MP_ISendRecv         7395                   4533.
 MP_Wait          66342328
 MP_comm_split    54339518
 MP_ISend        377763186                  23260.
 MP_IRecv        373057790                  21844.
 -------------------------------------------------------------------------------


 -------------------------------------------------------------------------------
 -                                                                             -
 -                           R E F E R E N C E S                               -
 -                                                                             -
 -------------------------------------------------------------------------------
 
 CP2K version 2024.1 (Development Version), the CP2K developers group (2024).
 CP2K is freely available from https://www.cp2k.org/ .

 Graml, Maximilian; Zollner, Klaus; Hernangmez-Prez, Daniel;
 Faria Junior, Paulo Eduardo; Wilhelm, Jan. 
 Journal of Chemical Theory and Computation, 20, 2202-2208 (2024). 
 Low-scaling GW algorithm applied to twisted transition-metal
 dichalcogenide heterobilayers.
 https://doi.org/10.1021/acs.jctc.3c01230

 Kuehne,Thomas D.; Iannuzzi,Marcella; Del Ben,Mauro;
 Rybkin,Vladimir V.; Seewald,Patrick; Stein,Frederick; Laino,Teodoro;
 Khaliullin,Rustam Z.; Schuett,Ole; Schiffmann,Florian; Golze,Dorothea;
 Wilhelm,Jan; Chulkov,Sergey; Bani-Hashemian,Mohammad Hossein;
 Weber,Valery; Borstnik,Urban; Taillefumier,Mathieu;
 Jakobovits,Alice Shoshana; Lazzaro,Alfio; Pabst,Hans; Mueller,Tiziano;
 Schade,Robert; Guidon,Manuel; Andermatt,Samuel; Holmberg,Nico;
 Schenter,Gregory K.; Hehn,Anna; Bussy,Augustin; Belleflamme,Fabian;
 Tabacchi,Gloria; Gloess,Andreas; Lass,Michael; Bethune,Iain;
 Mundy,Christopher J.; Plessl,Christian; Watkins,Matt;
 VandeVondele,Joost; Krack,Matthias; Hutter,Juerg. 
 The Journal of Chemical Physics, 152 (19), (2020). 
 CP2K: An electronic structure and molecular dynamics software package -
 Quickstep: Efficient and accurate electronic structure calculations.
 https://doi.org/10.1063/5.0007045

 Togo, Atsushi; Tanaka, Isao. arXiv, 1808.01590 (2018). 
 Spglib : a software library for crystal symmetry search.
 https://doi.org/xxx

 Schuett, Ole; Messmer, Peter; Hutter, Juerg; VandeVondele, Joost. 
 Electronic Structure Calculations on Graphics Processing Units, John
 Wiley & Sons, Ltd, 173-190 (2016). 
 GPU-Accelerated Sparse Matrix-Matrix Multiplication for
 Linear Scaling Density Functional Theory.
 https://doi.org/10.1002/9781118670712.ch8

 Heinecke, A; Henry, G; Hutchinson, M; Pabst, H. 
 Proceedings of Intl. Supercomputing Conference, 981-991 (2016). 
 LIBXSMM: Accelerating Small Matrix Multiplications
 by Runtime Code Generation.
 https://doi.org/10.1109/SC.2016.83

 Borstnik, U; VandeVondele, J; Weber, V; Hutter, J. 
 PARALLEL COMPUTING, 40 (5-6), 47-58 (2014). 
 Sparse matrix multiplication: The distributed block-compressed sparse
 row library.
 https://doi.org/10.1016/j.parco.2014.03.012

 Hutter, J; Iannuzzi, M; Schiffmann, F; VandeVondele, J. 
 WIREs Comput Mol Sci., 4 (1), 15-25 (2014). 
 CP2K: atomistic simulations of condensed matter systems.
 https://doi.org/10.1002/wcms.1159

 Marek, A; Blum, V; Johanni, R; Havu, V; Lang, B; Auckenthaler, T;
 Heinecke, A; Bungartz, H; Lederer, H. 
 Journal of Physics: Condensed Matter, 26 (21), (2014). 
 The ELPA library: scalable parallel eigenvalue solutions for
 electronic structure
 theory and computational science.
 https://doi.org/10.1088/0953-8984/26/21/213201

 VandeVondele, J; Hutter, J. 
 JOURNAL OF CHEMICAL PHYSICS, 127 (11), 114105 (2007). 
 Gaussian basis sets for accurate calculations on molecular systems in
 gas and condensed phases.
 https://doi.org/10.1063/1.2770708

 Krack, M. 
 THEORETICAL CHEMISTRY ACCOUNTS, 114 (1-3), 145-152 (2005). 
 Pseudopotentials for H to Kr optimized for gradient-corrected
 exchange-correlation functionals.
 https://doi.org/10.1007/s00214-005-0655-y

 VandeVondele, J; Krack, M; Mohamed, F; Parrinello, M; Chassaing, T;
 Hutter, J. COMPUTER PHYSICS COMMUNICATIONS, 167 (2), 103-128 (2005). 
 QUICKSTEP: Fast and accurate density functional calculations using a
 mixed Gaussian and plane waves approach.
 https://doi.org/10.1016/j.cpc.2004.12.014

 Frigo, M; Johnson, SG. 
 PROCEEDINGS OF THE IEEE, 93 (2), 216-231 (2005). 
 The design and implementation of FFTW3.
 https://doi.org/10.1109/JPROC.2004.840301

 Hartwigsen, C; Goedecker, S; Hutter, J. 
 PHYSICAL REVIEW B, 58 (7), 3641-3662 (1998). 
 Relativistic separable dual-space Gaussian pseudopotentials from H to Rn.
 https://doi.org/10.1103/PhysRevB.58.3641

 Lippert, G; Hutter, J; Parrinello, M. 
 MOLECULAR PHYSICS, 92 (3), 477-487 (1997). 
 A hybrid Gaussian and plane wave density functional scheme.
 https://doi.org/10.1080/002689797170220

 Perdew, JP; Burke, K; Ernzerhof, M. 
 PHYSICAL REVIEW LETTERS, 77 (18), 3865-3868 (1996). 
 Generalized gradient approximation made simple.
 https://doi.org/10.1103/PhysRevLett.77.3865

 Goedecker, S; Teter, M; Hutter, J. 
 PHYSICAL REVIEW B, 54 (3), 1703-1710 (1996). 
 Separable dual-space Gaussian pseudopotentials.
 https://doi.org/10.1103/PhysRevB.54.1703


 -------------------------------------------------------------------------------
 -                                                                             -
 -                                T I M I N G                                  -
 -                                                                             -
 -------------------------------------------------------------------------------
 SUBROUTINE                       CALLS  ASD         SELF TIME        TOTAL TIME
                                MAXIMUM       AVERAGE  MAXIMUM  AVERAGE  MAXIMUM
 CP2K                                 1  1.0     0.19     1.32 92253.16 92253.58
 qs_energies                          1  2.0     0.04     0.23 92250.56 92250.96
 qs_energies_properties               1  3.0     0.00     0.00 92112.46 92112.89
 post_scf_bandstructure               1  4.0     0.01     0.05 92112.46 92112.89
 gw                                   1  5.0     0.02     0.23 91894.02 91894.43
 gw_calc_small_cell_full_kp           1  6.0     0.06     0.73 91705.79 91706.22
 dbt_total                      ******* 10.0   183.69   193.45 59734.45 60464.77
 dbt_contract                   ******* 10.7   206.00   225.38 50219.36 50825.22
 dbt_tas_multiply               ******* 13.0    17.70    20.23 47505.27 48284.04
 dbt_tas_total                  ******* 14.0   995.37  1043.38 46994.75 47570.36
 compute_Sigma_c                      1  7.0     0.03     0.04 32366.13 32366.28
 compute_chi                          1  7.0     0.37     0.42 31630.79 31630.96
 compute_W_real_space                 1  7.0    18.50    37.92 24680.48 24680.97
 compute_Minv_and_Vsqrt               1  8.0     0.45     0.73 22788.97 22789.74
 build_2c_coulomb_matrix_kp_sma       2  9.0    25.62    38.24 22722.88 22723.09
 contract_to_Sigma                 4389  8.0   601.81   620.10 21832.88 22169.82
 contract_M_occ_vir_to_chi         2090  8.0  1199.51  1245.24 20672.78 21022.67
 mp_sync                        ******* -0.8 17541.68 20948.70 17541.68 20948.70
 build_2c_coulomb_matrix_kp_sma  589824 10.0 17208.25 17951.98 17208.25 17951.98
 dbt_tas_dbm                    ******* 15.0    16.38    18.93 16142.67 16487.03
 dbm_multiply                   ******* 17.0 11764.09 13601.65 11764.09 13601.65
 contract_to_Sigma_3c_x_G       *******  9.0    40.16    42.36 12968.89 13138.24
 contract_W                        2299  8.0    93.65    99.46 11961.12 12153.14
 dbt_tas_estimate_result_nze    9462986 13.5   682.86   898.38 10278.75 10391.99
 G_times_3c                      150260  8.0   133.22   139.74 10025.41 10195.25
 dbt_tas_mm_2                   6551172 16.1     7.06     8.46  9195.59  9412.72
 dbt_copy                       ******* 11.2   201.97   215.92  7490.59  8493.74
 contract_to_Sigma_contract      157773  9.0   154.66   167.47  8048.96  8206.11
 dbt_reshape                    ******* 12.1  2878.93  3191.16  6366.92  7238.44
 convert_to_new_pgrid           ******* 15.0  2308.78  2704.99  6272.99  6856.19
 reshape_mm_small               ******* 15.0  1225.32  1325.13  6267.55  6428.07
 dbt_tas_create_split           ******* 16.1    38.94    42.05  5972.36  6164.74
 dbt_tas_create_split_rows_or_c ******* 17.1   129.32   138.04  5933.42  6127.45
 dbt_tas_distribution_new       ******* 15.8  2805.55  2880.77  5316.70  5441.79
 reshape_mm_compatible          ******* 15.0   182.79   191.92  4815.26  4979.75
 get_t_3c_int                   *******  9.7   126.54   134.94  4805.94  4953.29
 add_V_L                         589824 10.0   148.55  4831.13   148.55  4831.13
 dbm_redistribute               ******* 14.7  3579.38  4270.20  3579.38  4270.20
 change_split                   ******* 15.5    69.11    73.33  4050.35  4206.26
 dbt_tas_mm_3T                  7621256 16.2     4.67     5.21  3138.01  3526.79
 mp_waitall_2                   ******* 17.6  2837.50  3519.68  2837.50  3519.68
 dbt_tas_reshape                ******* 15.2   142.59   154.96  2880.75  3213.88
 dbt_tas_replicate              ******* 15.0   803.72   932.02  2981.98  3157.57
 mp_alltoall_i                  ******* 14.5  2586.40  2807.74  2586.40  2807.74
 compute_Sigma_x                      1  7.0     0.06     0.39  2580.13  2580.27
 mp_comm_dup                    ******* 18.6  2218.84  2442.72  2246.84  2470.05
 dbt_communicate_buffer         ******* 13.1    59.64    64.08  1811.29  2409.83
 mp_cart_create                 ******* 16.8  2139.00  2228.67  2192.80  2283.22
 mp_comm_split_direct           ******* 18.1  2149.04  2244.88  2166.39  2261.67
 dbt_tas_communicate_buffer     ******* 17.1   258.64   287.00  1675.24  1878.74
 -------------------------------------------------------------------------------

 The number of warnings for this run is : 0
 
 -------------------------------------------------------------------------------
  **** **** ******  **  PROGRAM ENDED AT                 2025-01-05 08:46:01.087
 ***** ** ***  *** **   PROGRAM RAN ON                                 n2lcn0110
 **    ****   ******    PROGRAM RAN BY                                  eprop2d1
 ***** **    ** ** **   PROGRAM PROCESS ID                               3377775
  **** **  *******  **  PROGRAM STOPPED IN /scratch/hpc-prf-metdyn/eprop2d1_Jan/
                                           39_CN_Zahra_Thomas/07_aug-SVP_RI_C_31
                                           _N_27_12x12x24_kmesh_more_reasonable_
                                           SCF_params
